VARIABLES=X,Y,rho,T,kappa,ParticlePercentage
 ZONE N=         305 ,E=         200 ,datapacking=block
varlocation=([3-6]=cellcentered)
ZONETYPE=FETRIANGLE
 -0.500000000000000     
  0.000000000000000E+000
  0.500000000000000     
  0.510000000000000     
  0.510000000000000     
  0.500000000000000     
  0.000000000000000E+000
 -0.500000000000000     
 -0.490000000000000     
 -0.480000000000000     
 -0.470000000000000     
 -0.460000000000000     
 -0.450000000000000     
 -0.440000000000000     
 -0.430000000000000     
 -0.420000000000000     
 -0.410000000000000     
 -0.400000000000000     
 -0.390000000000000     
 -0.380000000000000     
 -0.370000000000000     
 -0.360000000000000     
 -0.350000000000000     
 -0.340000000000000     
 -0.330000000000000     
 -0.320000000000000     
 -0.310000000000000     
 -0.300000000000000     
 -0.290000000000000     
 -0.280000000000000     
 -0.270000000000000     
 -0.260000000000000     
 -0.250000000000000     
 -0.240000000000000     
 -0.230000000000000     
 -0.220000000000000     
 -0.210000000000000     
 -0.200000000000000     
 -0.190000000000000     
 -0.180000000000000     
 -0.170000000000000     
 -0.160000000000000     
 -0.150000000000000     
 -0.140000000000000     
 -0.130000000000000     
 -0.120000000000000     
 -0.110000000000000     
 -0.100000000000000     
 -9.000000000000002E-002
 -8.000000000000002E-002
 -7.000000000000001E-002
 -6.000000000000000E-002
 -4.999999999999999E-002
 -3.999999999999998E-002
 -3.000000000000003E-002
 -2.000000000000002E-002
 -1.000000000000001E-002
  1.000000000000000E-002
  2.000000000000000E-002
  3.000000000000000E-002
  4.000000000000000E-002
  5.000000000000000E-002
  6.000000000000000E-002
  7.000000000000001E-002
  8.000000000000000E-002
  9.000000000000000E-002
  0.100000000000000     
  0.110000000000000     
  0.120000000000000     
  0.130000000000000     
  0.140000000000000     
  0.150000000000000     
  0.160000000000000     
  0.170000000000000     
  0.180000000000000     
  0.190000000000000     
  0.200000000000000     
  0.210000000000000     
  0.220000000000000     
  0.230000000000000     
  0.240000000000000     
  0.250000000000000     
  0.260000000000000     
  0.270000000000000     
  0.280000000000000     
  0.290000000000000     
  0.300000000000000     
  0.310000000000000     
  0.320000000000000     
  0.330000000000000     
  0.340000000000000     
  0.350000000000000     
  0.360000000000000     
  0.370000000000000     
  0.380000000000000     
  0.390000000000000     
  0.400000000000000     
  0.410000000000000     
  0.420000000000000     
  0.430000000000000     
  0.440000000000000     
  0.450000000000000     
  0.460000000000000     
  0.470000000000000     
  0.480000000000000     
  0.490000000000000     
  0.490000000000000     
  0.480000000000000     
  0.470000000000000     
  0.460000000000000     
  0.450000000000000     
  0.440000000000000     
  0.430000000000000     
  0.420000000000000     
  0.410000000000000     
  0.400000000000000     
  0.390000000000000     
  0.380000000000000     
  0.370000000000000     
  0.360000000000000     
  0.350000000000000     
  0.340000000000000     
  0.330000000000000     
  0.320000000000000     
  0.310000000000000     
  0.300000000000000     
  0.290000000000000     
  0.280000000000000     
  0.270000000000000     
  0.260000000000000     
  0.250000000000000     
  0.240000000000000     
  0.230000000000000     
  0.220000000000000     
  0.210000000000000     
  0.200000000000000     
  0.190000000000000     
  0.180000000000000     
  0.170000000000000     
  0.160000000000000     
  0.150000000000000     
  0.140000000000000     
  0.130000000000000     
  0.120000000000000     
  0.110000000000000     
  0.100000000000000     
  9.000000000000002E-002
  8.000000000000002E-002
  7.000000000000001E-002
  6.000000000000000E-002
  4.999999999999999E-002
  3.999999999999998E-002
  3.000000000000003E-002
  2.000000000000002E-002
  1.000000000000001E-002
 -1.000000000000000E-002
 -2.000000000000000E-002
 -3.000000000000000E-002
 -4.000000000000000E-002
 -5.000000000000000E-002
 -6.000000000000000E-002
 -7.000000000000001E-002
 -8.000000000000000E-002
 -9.000000000000000E-002
 -0.100000000000000     
 -0.110000000000000     
 -0.120000000000000     
 -0.130000000000000     
 -0.140000000000000     
 -0.150000000000000     
 -0.160000000000000     
 -0.170000000000000     
 -0.180000000000000     
 -0.190000000000000     
 -0.200000000000000     
 -0.210000000000000     
 -0.220000000000000     
 -0.230000000000000     
 -0.240000000000000     
 -0.250000000000000     
 -0.260000000000000     
 -0.270000000000000     
 -0.280000000000000     
 -0.290000000000000     
 -0.300000000000000     
 -0.310000000000000     
 -0.320000000000000     
 -0.330000000000000     
 -0.340000000000000     
 -0.350000000000000     
 -0.360000000000000     
 -0.370000000000000     
 -0.380000000000000     
 -0.390000000000000     
 -0.400000000000000     
 -0.410000000000000     
 -0.420000000000000     
 -0.430000000000000     
 -0.440000000000000     
 -0.450000000000000     
 -0.460000000000000     
 -0.470000000000000     
 -0.480000000000000     
 -0.490000000000000     
 -0.345000000000000     
 -0.465000000000000     
 -0.145000000000000     
 -0.475000000000000     
 -0.455000000000000     
 -0.285000000000000     
 -0.405000000000000     
 -0.155000000000000     
 -0.215000000000000     
 -9.500000000000000E-002
 -3.500000000000003E-002
 -0.315000000000000     
 -0.305000000000000     
 -0.395000000000000     
 -0.355000000000000     
 -0.425000000000000     
 -0.275000000000000     
 -0.235000000000000     
 -0.205000000000000     
 -0.175000000000000     
 -0.245000000000000     
 -0.185000000000000     
 -4.499999999999996E-002
 -0.195000000000000     
 -0.135000000000000     
 -0.115000000000000     
 -0.105000000000000     
 -8.500000000000016E-002
 -2.500000000000005E-002
 -0.295000000000000     
 -6.500000000000014E-002
 -0.415000000000000     
 -0.485000000000000     
 -0.445000000000000     
 -0.435000000000000     
 -0.385000000000000     
 -0.375000000000000     
 -0.365000000000000     
 -0.265000000000000     
 -0.255000000000000     
 -0.225000000000000     
 -0.165000000000000     
 -0.125000000000000     
 -0.495000000000000     
 -5.000000000000004E-003
 -7.499999999999990E-002
 -5.499999999999985E-002
 -1.499999999999999E-002
 -0.325000000000000     
 -0.335000000000000     
  0.345000000000000     
  0.465000000000000     
  0.145000000000000     
  0.205000000000000     
  0.455000000000000     
  0.475000000000000     
  0.405000000000000     
  0.155000000000000     
  0.215000000000000     
  9.499999999999997E-002
  3.500000000000003E-002
  0.305000000000000     
  0.315000000000000     
  0.275000000000000     
  0.355000000000000     
  0.395000000000000     
  0.175000000000000     
  0.235000000000000     
  0.425000000000000     
  4.499999999999996E-002
  2.500000000000005E-002
  8.500000000000016E-002
  0.105000000000000     
  0.115000000000000     
  0.135000000000000     
  0.185000000000000     
  0.195000000000000     
  0.245000000000000     
  6.500000000000014E-002
  0.285000000000000     
  0.165000000000000     
  0.225000000000000     
  0.295000000000000     
  0.415000000000000     
  0.495000000000000     
  0.125000000000000     
  0.255000000000000     
  0.265000000000000     
  0.365000000000000     
  0.375000000000000     
  0.385000000000000     
  0.435000000000000     
  0.445000000000000     
  0.485000000000000     
  5.000000000000004E-003
  7.499999999999990E-002
  5.499999999999985E-002
  1.500000000000001E-002
  0.325000000000000     
  0.335000000000000     
  0.505000000000000     
  0.000000000000000E+000
  0.000000000000000E+000
  0.000000000000000E+000
  0.000000000000000E+000
  1.000000000000000E-002
  1.000000000000000E-002
  1.000000000000000E-002
  1.000000000000000E-002
  1.000000000000000E-002
  1.000000000000000E-002
  1.000000000000000E-002
  1.000000000000000E-002
  1.000000000000000E-002
  1.000000000000000E-002
  1.000000000000000E-002
  1.000000000000000E-002
  1.000000000000000E-002
  1.000000000000000E-002
  1.000000000000000E-002
  1.000000000000000E-002
  1.000000000000000E-002
  1.000000000000000E-002
  1.000000000000000E-002
  1.000000000000000E-002
  1.000000000000000E-002
  1.000000000000000E-002
  1.000000000000000E-002
  1.000000000000000E-002
  1.000000000000000E-002
  1.000000000000000E-002
  1.000000000000000E-002
  1.000000000000000E-002
  1.000000000000000E-002
  1.000000000000000E-002
  1.000000000000000E-002
  1.000000000000000E-002
  1.000000000000000E-002
  1.000000000000000E-002
  1.000000000000000E-002
  1.000000000000000E-002
  1.000000000000000E-002
  1.000000000000000E-002
  1.000000000000000E-002
  1.000000000000000E-002
  1.000000000000000E-002
  1.000000000000000E-002
  1.000000000000000E-002
  1.000000000000000E-002
  1.000000000000000E-002
  1.000000000000000E-002
  1.000000000000000E-002
  1.000000000000000E-002
  1.000000000000000E-002
  1.000000000000000E-002
  1.000000000000000E-002
  1.000000000000000E-002
  1.000000000000000E-002
  1.000000000000000E-002
  1.000000000000000E-002
  1.000000000000000E-002
  1.000000000000000E-002
  1.000000000000000E-002
  1.000000000000000E-002
  1.000000000000000E-002
  1.000000000000000E-002
  1.000000000000000E-002
  1.000000000000000E-002
  1.000000000000000E-002
  1.000000000000000E-002
  1.000000000000000E-002
  1.000000000000000E-002
  1.000000000000000E-002
  1.000000000000000E-002
  1.000000000000000E-002
  1.000000000000000E-002
  1.000000000000000E-002
  1.000000000000000E-002
  1.000000000000000E-002
  1.000000000000000E-002
  1.000000000000000E-002
  1.000000000000000E-002
  1.000000000000000E-002
  1.000000000000000E-002
  1.000000000000000E-002
  1.000000000000000E-002
  1.000000000000000E-002
  1.000000000000000E-002
  1.000000000000000E-002
  1.000000000000000E-002
  1.000000000000000E-002
  1.000000000000000E-002
  1.000000000000000E-002
  1.000000000000000E-002
  1.000000000000000E-002
  1.000000000000000E-002
  1.000000000000000E-002
  1.000000000000000E-002
  1.000000000000000E-002
  1.000000000000000E-002
  1.000000000000000E-002
  1.000000000000000E-002
  1.000000000000000E-002
  1.000000000000000E-002
  1.000000000000000E-002
  1.000000000000000E-002
  1.000000000000000E-002
  0.000000000000000E+000
  0.000000000000000E+000
  0.000000000000000E+000
  0.000000000000000E+000
  0.000000000000000E+000
  0.000000000000000E+000
  0.000000000000000E+000
  0.000000000000000E+000
  0.000000000000000E+000
  0.000000000000000E+000
  0.000000000000000E+000
  0.000000000000000E+000
  0.000000000000000E+000
  0.000000000000000E+000
  0.000000000000000E+000
  0.000000000000000E+000
  0.000000000000000E+000
  0.000000000000000E+000
  0.000000000000000E+000
  0.000000000000000E+000
  0.000000000000000E+000
  0.000000000000000E+000
  0.000000000000000E+000
  0.000000000000000E+000
  0.000000000000000E+000
  0.000000000000000E+000
  0.000000000000000E+000
  0.000000000000000E+000
  0.000000000000000E+000
  0.000000000000000E+000
  0.000000000000000E+000
  0.000000000000000E+000
  0.000000000000000E+000
  0.000000000000000E+000
  0.000000000000000E+000
  0.000000000000000E+000
  0.000000000000000E+000
  0.000000000000000E+000
  0.000000000000000E+000
  0.000000000000000E+000
  0.000000000000000E+000
  0.000000000000000E+000
  0.000000000000000E+000
  0.000000000000000E+000
  0.000000000000000E+000
  0.000000000000000E+000
  0.000000000000000E+000
  0.000000000000000E+000
  0.000000000000000E+000
  0.000000000000000E+000
  0.000000000000000E+000
  0.000000000000000E+000
  0.000000000000000E+000
  0.000000000000000E+000
  0.000000000000000E+000
  0.000000000000000E+000
  0.000000000000000E+000
  0.000000000000000E+000
  0.000000000000000E+000
  0.000000000000000E+000
  0.000000000000000E+000
  0.000000000000000E+000
  0.000000000000000E+000
  0.000000000000000E+000
  0.000000000000000E+000
  0.000000000000000E+000
  0.000000000000000E+000
  0.000000000000000E+000
  0.000000000000000E+000
  0.000000000000000E+000
  0.000000000000000E+000
  0.000000000000000E+000
  0.000000000000000E+000
  0.000000000000000E+000
  0.000000000000000E+000
  0.000000000000000E+000
  0.000000000000000E+000
  0.000000000000000E+000
  0.000000000000000E+000
  0.000000000000000E+000
  0.000000000000000E+000
  0.000000000000000E+000
  0.000000000000000E+000
  0.000000000000000E+000
  0.000000000000000E+000
  0.000000000000000E+000
  0.000000000000000E+000
  0.000000000000000E+000
  0.000000000000000E+000
  0.000000000000000E+000
  0.000000000000000E+000
  0.000000000000000E+000
  0.000000000000000E+000
  0.000000000000000E+000
  0.000000000000000E+000
  0.000000000000000E+000
  0.000000000000000E+000
  0.000000000000000E+000
  5.000000000000000E-003
  4.999999999999991E-003
  5.000000000000016E-003
  4.999999999999998E-003
  4.999999999999875E-003
  5.000000000000011E-003
  5.000000000000102E-003
  5.000000000000004E-003
  4.999999999999999E-003
  5.000000000000034E-003
  4.999999999999989E-003
  5.000000000000000E-003
  4.999999999999999E-003
  5.000000000000056E-003
  4.999999999999966E-003
  5.000000000000000E-003
  4.999999999999983E-003
  5.000000000000000E-003
  5.000000000000000E-003
  5.000000000000000E-003
  5.000000000000000E-003
  5.000000000000000E-003
  4.999999999999998E-003
  5.000000000000000E-003
  5.000000000000000E-003
  5.000000000000000E-003
  5.000000000000006E-003
  5.000000000000111E-003
  4.999999999999931E-003
  4.999999999999997E-003
  5.000000000000000E-003
  5.000000000000068E-003
  5.000000000000000E-003
  5.000000000000000E-003
  5.000000000000000E-003
  5.000000000000003E-003
  5.000000000000000E-003
  5.000000000000000E-003
  5.000000000000000E-003
  5.000000000000000E-003
  5.000000000000017E-003
  5.000000000000024E-003
  5.000000000000000E-003
  5.000000000000000E-003
  5.000000000000000E-003
  5.000000000000000E-003
  5.000000000000000E-003
  5.000000000000000E-003
  4.999999999999991E-003
  5.000000000000019E-003
  5.000000000000001E-003
  5.000000000000010E-003
  4.999999999999984E-003
  4.999999999999984E-003
  5.000000000000125E-003
  4.999999999999978E-003
  4.999999999999899E-003
  4.999999999999998E-003
  5.000000000000000E-003
  4.999999999999933E-003
  4.999999999999989E-003
  5.000000000000001E-003
  5.000000000000000E-003
  5.000000000000012E-003
  5.000000000000035E-003
  4.999999999999945E-003
  5.000000000000000E-003
  5.000000000000000E-003
  5.000000000000001E-003
  4.999999999999998E-003
  5.000000000000069E-003
  4.999999999999889E-003
  5.000000000000028E-003
  5.000000000000001E-003
  5.000000000000000E-003
  5.000000000000000E-003
  5.000000000000000E-003
  4.999999999999999E-003
  5.000000000000000E-003
  4.999999999999993E-003
  4.999999999999984E-003
  4.999999999999980E-003
  4.999999999999999E-003
  4.999999999999933E-003
  5.000000000000000E-003
  5.000000000000000E-003
  5.000000000000000E-003
  5.000000000000000E-003
  5.000000000000000E-003
  5.000000000000000E-003
  4.999999999999998E-003
  5.000000000000000E-003
  5.000000000000000E-003
  4.999999999999967E-003
  5.000000000000000E-003
  5.000000000000001E-003
  5.000000000000000E-003
  5.000000000000000E-003
  5.000000000000009E-003
  5.000000000000024E-003
  5.000000000000000E-003
  4.113256000000004E-025
  4.113256000000004E-025
  0.216319385422665     
  0.349625500361540     
  0.216319385422665     
  0.349625500361539     
  4.113256000000003E-025
  4.113256000000004E-025
  6.920995385792256E-002
  4.113256000000003E-025
  4.113256000000003E-025
  4.113256000000001E-025
  6.920995385792257E-002
  4.113256000000001E-025
  4.113256000000003E-025
  4.113256000000001E-025
  4.113256000000001E-025
  4.113256000000001E-025
  4.113256000000003E-025
  4.113256000000001E-025
  4.113256000000001E-025
  4.113256000000001E-025
  4.113256000000001E-025
  4.113256000000001E-025
  6.788504489879016E-022
  4.113256000000001E-025
  4.113256000000001E-025
  4.113256000000003E-025
  4.113256000000001E-025
  4.113256000000001E-025
  4.113256000000003E-025
  4.113256000000003E-025
  4.113256000000003E-025
  4.113256000000001E-025
  4.113256000000001E-025
  4.113256000000001E-025
  0.295964360288649     
  0.303985125674790     
  0.262383754582214     
  0.175271463620043     
  8.147085234310421E-011
  4.113256000000001E-025
  4.113256000000001E-025
  4.113256000000001E-025
  4.113256000000001E-025
  4.113256000000001E-025
  4.113256000000001E-025
  4.113256000000001E-025
  4.113256000000001E-025
  4.113256000000001E-025
  4.113256000000001E-025
  0.391540302940970     
  0.384782408162577     
  0.363980700073126     
  0.371005992449826     
  0.253582120676478     
  0.164193294081947     
  0.128068856380889     
  0.140672346970254     
  4.113256000000003E-025
  4.113256000000001E-025
  4.113256000000001E-025
  4.113256000000001E-025
  4.113256000000001E-025
  4.113256000000001E-025
  4.113256000000001E-025
  4.113256000000001E-025
  4.113256000000001E-025
  0.404809114259109     
  4.113256000000003E-025
  4.113256000000003E-025
  4.113256000000004E-025
  0.100576946205687     
  0.100576946205687     
  4.113256000000003E-025
  0.319639965276029     
  4.113256000000003E-025
  0.319639965276029     
  4.113256000000003E-025
  4.113256000000003E-025
  3.000029471154606E-002
  4.113256000000004E-025
  0.196332540245584     
  0.196332540245584     
  3.000029471154607E-002
  4.113256000000003E-025
  4.113256000000003E-025
  4.113256000000003E-025
  4.113256000000003E-025
  4.113256000000003E-025
  4.113256000000003E-025
  4.113256000000003E-025
  4.113256000000003E-025
  0.235368849630754     
  0.334848907539666     
  0.235368849630754     
  0.334848907539666     
  0.279470703155439     
  0.279470703155439     
  4.113256000000003E-025
  4.113256000000001E-025
  4.113256000000002E-025
  4.113256000000002E-025
  4.113256000000002E-025
  4.113256000000001E-025
  4.113256000000001E-025
  4.113256000000001E-025
  4.113256000000001E-025
  4.113256000000001E-025
  4.113256000000002E-025
  4.113256000000001E-025
  4.113256000000002E-025
  4.113256000000001E-025
  4.113256000000001E-025
  4.113256000000001E-025
  4.113256000000001E-025
  8.550941194132049E-002
  5.112442471689202E-002
  4.113256000000001E-025
  0.206452414880582     
  4.113255918145155E-025
  4.113256000000001E-025
  4.113256000000001E-025
  4.113256000000001E-025
  4.113256000000001E-025
  4.113256000000001E-025
  4.113256000000001E-025
  4.113256000000001E-025
  4.113256000000001E-025
  4.113256000000001E-025
  1.738233109484993E-003
  0.244578465440288     
  0.327300592225481     
  0.356858133110779     
  0.342289214847266     
  0.225952637922957     
  4.113256000000001E-025
  4.113256000000001E-025
  4.113256000000001E-025
  4.113256000000001E-025
  0.114707250494205     
  0.287795672422925     
  0.185942475451015     
  1.738233109484955E-003
  4.113256000000001E-025
  4.113256000000001E-025
  4.113256000000001E-025
  0.398214587227904     
  4.113256000000001E-025
  4.113256000000001E-025
  0.327300592225481     
  0.152649339563894     
  4.113256000000001E-025
  4.113256000000001E-025
  4.113256000000001E-025
  4.113256000000001E-025
  4.113256000000001E-025
  4.113256000000001E-025
  4.113256000000001E-025
  4.113256000000001E-025
  4.113256000000001E-025
  4.113256000000001E-025
  4.113256000000001E-025
  4.113256000000001E-025
  4.113256000000001E-025
  4.113256000000001E-025
  4.113256000000001E-025
  4.113256000000001E-025
  4.113256000000001E-025
  4.113256000000001E-025
  4.113256000000001E-025
  4.113256000000001E-025
  4.113256000000001E-025
  4.113256000000001E-025
  4.113256000000001E-025
  4.113256000000001E-025
  4.113256000000001E-025
  4.113256885366297E-025
  0.114707250494205     
  0.152649339563894     
  0.185942475451015     
  0.270997382266965     
  0.287795672422925     
  0.311866075038355     
  0.377937818010851     
  0.398214587227904     
  0.377937818010851     
  0.311866075038355     
  0.356858133110779     
  4.113256000000001E-025
  5.112442471689221E-002
  0.225952637922957     
  0.342289214847266     
  0.270997382266965     
  0.244578465440288     
  0.206452414880583     
  8.550941194132036E-002
  4.113256000000001E-025
  4.113256000000001E-025
  4.113256000000001E-025
  1.000000000000000E-006
  1.000000000000000E-006
  0.851577414927534     
  0.960182521490972     
  0.851577414927534     
  0.960182521490972     
  1.000000000000000E-006
  1.000000000000000E-006
  0.640431114095351     
  1.000000000000000E-006
  1.000000000000000E-006
  1.000000000000000E-006
  0.640431114095351     
  1.000000000000000E-006
  1.000000000000000E-006
  1.000000000000000E-006
  1.000000000000000E-006
  1.000000000000000E-006
  1.000000000000000E-006
  1.000000000000000E-006
  1.000000000000000E-006
  1.000000000000000E-006
  1.000000000000000E-006
  1.000000000000000E-006
  5.412365349701761E-006
  1.000000000000000E-006
  1.000000000000000E-006
  1.000000000000000E-006
  1.000000000000000E-006
  1.000000000000000E-006
  1.000000000000000E-006
  1.000000000000000E-006
  1.000000000000000E-006
  1.000000000000000E-006
  1.000000000000000E-006
  1.000000000000000E-006
  0.921005346316711     
  0.927183105754837     
  0.893687895716606     
  0.807934257403796     
  3.203044813612674E-003
  1.000000000000000E-006
  1.000000000000000E-006
  1.000000000000000E-006
  1.000000000000000E-006
  1.000000000000000E-006
  1.000000000000000E-006
  1.000000000000000E-006
  1.000000000000000E-006
  1.000000000000000E-006
  1.000000000000000E-006
  0.987751125764720     
  0.983461043135957     
  0.969890618233731     
  0.974537303492494     
  0.886096634055541     
  0.794852037307004     
  0.746972543739571     
  0.764711233376622     
  1.000000000000000E-006
  1.000000000000000E-006
  1.000000000000000E-006
  1.000000000000000E-006
  1.000000000000000E-006
  1.000000000000000E-006
  1.000000000000000E-006
  1.000000000000000E-006
  1.000000000000000E-006
  0.996015480296590     
  1.000000000000000E-006
  1.000000000000000E-006
  1.000000000000000E-006
  0.703175349575267     
  0.703175349575267     
  1.000000000000000E-006
  0.938896939395047     
  1.000000000000000E-006
  0.938896939395047     
  1.000000000000000E-006
  1.000000000000000E-006
  0.519619532539040     
  1.000000000000000E-006
  0.831184585807322     
  0.831184585807322     
  0.519619532539040     
  1.000000000000000E-006
  1.000000000000000E-006
  1.000000000000000E-006
  1.000000000000000E-006
  1.000000000000000E-006
  1.000000000000000E-006
  1.000000000000000E-006
  1.000000000000000E-006
  0.869737451533708     
  0.949871970514809     
  0.869737451533708     
  0.949871970514809     
  0.907895935654482     
  0.907895935654482     
  1.000000000000000E-006
  1.000000000000000E-006
  1.000000000000000E-006
  1.000000000000000E-006
  1.000000000000000E-006
  1.000000000000000E-006
  1.000000000000000E-006
  1.000000000000000E-006
  1.000000000000000E-006
  1.000000000000000E-006
  1.000000000000000E-006
  1.000000000000000E-006
  1.000000000000000E-006
  1.000000000000000E-006
  1.000000000000000E-006
  1.000000000000000E-006
  1.000000000000000E-006
  0.675210030004222     
  0.593716809239660     
  1.000000000000000E-006
  0.841695230669278     
  9.999999965461001E-007
  1.000000000000000E-006
  1.000000000000000E-006
  1.000000000000000E-006
  1.000000000000000E-006
  1.000000000000000E-006
  1.000000000000000E-006
  1.000000000000000E-006
  1.000000000000000E-006
  1.000000000000000E-006
  0.254437232629611     
  0.878123796972295     
  0.944472797813507     
  0.965110404063740     
  0.955105272619735     
  0.860904495813204     
  1.000000000000000E-006
  1.000000000000000E-006
  1.000000000000000E-006
  1.000000000000000E-006
  0.726673674670927     
  0.914583201350941     
  0.819961603313577     
  0.254437232629609     
  1.000000000000000E-006
  1.000000000000000E-006
  1.000000000000000E-006
  0.991933960266367     
  1.000000000000000E-006
  1.000000000000000E-006
  0.944472797813507     
  0.780495141044185     
  1.000000000000000E-006
  1.000000000000000E-006
  1.000000000000000E-006
  1.000000000000000E-006
  1.000000000000000E-006
  1.000000000000000E-006
  1.000000000000000E-006
  1.000000000000000E-006
  1.000000000000000E-006
  1.000000000000000E-006
  1.000000000000000E-006
  1.000000000000000E-006
  1.000000000000000E-006
  1.000000000000000E-006
  1.000000000000000E-006
  1.000000000000000E-006
  1.000000000000000E-006
  1.000000000000000E-006
  1.000000000000000E-006
  1.000000000000000E-006
  1.000000000000000E-006
  1.000000000000000E-006
  1.000000000000000E-006
  1.000000000000000E-006
  1.000000000000000E-006
  1.000000034611145E-006
  0.726673674670927     
  0.780495141044186     
  0.819961603313577     
  0.900934261468752     
  0.914583201350941     
  0.933135213389636     
  0.979057926073314     
  0.991933960266367     
  0.979057926073314     
  0.933135213389636     
  0.965110404063740     
  1.000000000000000E-006
  0.593716809239661     
  0.860904495813204     
  0.955105272619735     
  0.900934261468752     
  0.878123796972295     
  0.841695230669278     
  0.675210030004222     
  1.000000000000000E-006
  1.000000000000000E-006
  1.000000000000000E-006
  9.993333333333333E-008
  9.993333333333333E-008
  2.057128985077124E-002
  2.948835236271139E-002
  2.057128985077122E-002
  2.948835236271138E-002
  9.993333333333333E-008
  9.993333333333333E-008
  8.749966461914413E-003
  9.993333333333333E-008
  9.993333333333333E-008
  9.993333333333333E-008
  8.749966461914413E-003
  9.993333333333333E-008
  9.993333333333333E-008
  9.993333333333333E-008
  9.993333333333333E-008
  9.993333333333333E-008
  9.993333333333333E-008
  9.993333333333333E-008
  9.993333333333333E-008
  9.993333333333333E-008
  9.993333333333333E-008
  9.993333333333333E-008
  9.993333333333333E-008
  9.993333333333333E-008
  9.993333333333333E-008
  9.993333333333333E-008
  9.993333333333333E-008
  9.993333333333333E-008
  9.993333333333333E-008
  9.993333333333333E-008
  9.993333333333333E-008
  9.993333333333333E-008
  9.993333333333333E-008
  9.993333333333333E-008
  2.602409123099922E-002
  2.655129134740201E-002
  2.377643547812192E-002
  1.756779231051912E-002
  9.993333333333333E-008
  9.993333333333333E-008
  9.993333333333333E-008
  9.993333333333333E-008
  9.993333333333333E-008
  9.993333333333333E-008
  9.993333333333333E-008
  9.993333333333333E-008
  9.993333333333333E-008
  9.993333333333333E-008
  9.993333333333333E-008
  3.210197255108420E-002
  3.168550279536569E-002
  3.039186800160182E-002
  3.083078071801683E-002
  2.317567433869091E-002
  1.672815308649787E-002
  1.388363014415480E-002
  1.489640697066331E-002
  9.993333333333333E-008
  9.993333333333333E-008
  9.993333333333333E-008
  9.993333333333333E-008
  9.993333333333333E-008
  9.993333333333333E-008
  9.993333333333333E-008
  9.993333333333333E-008
  9.993333333333333E-008
  3.291450924946471E-002
  9.993333333333333E-008
  9.993333333333333E-008
  9.993333333333333E-008
  1.158190590737905E-002
  1.158190590737907E-002
  9.993333333333333E-008
  2.757038870653803E-002
  9.993333333333333E-008
  2.757038870653803E-002
  9.993333333333333E-008
  9.993333333333333E-008
  4.673535249799717E-003
  9.993333333333333E-008
  1.912852844802276E-002
  1.912852844802278E-002
  4.673535249799717E-003
  9.993333333333333E-008
  9.993333333333333E-008
  9.993333333333333E-008
  9.993333333333333E-008
  9.993333333333333E-008
  9.993333333333333E-008
  9.993333333333333E-008
  9.993333333333333E-008
  2.191561354724057E-002
  2.854856848704742E-002
  2.191561354724057E-002
  2.854856848704740E-002
  2.492856818707037E-002
  2.492856818707037E-002
  9.993333333333333E-008
  9.993333333333333E-008
  9.993333333333333E-008
  9.993333333333333E-008
  9.993333333333333E-008
  9.993333333333333E-008
  9.993333333333333E-008
  9.993333333333333E-008
  9.993333333333333E-008
  9.993333333333333E-008
  9.993333333333333E-008
  9.993333333333333E-008
  9.993333333333333E-008
  9.993333333333333E-008
  9.993333333333333E-008
  9.993333333333333E-008
  9.993333333333333E-008
  1.025429421334844E-002
  6.971514796402714E-003
  9.993333333333333E-008
  1.986340593351640E-002
  9.993333333333333E-008
  9.993333333333333E-008
  9.993333333333333E-008
  9.993333333333333E-008
  9.993333333333333E-008
  9.993333333333333E-008
  9.993333333333333E-008
  9.993333333333333E-008
  9.993333333333333E-008
  9.993333333333333E-008
  5.486950874302081E-004
  2.255570255635443E-002
  2.806451113186475E-002
  2.994470998774974E-002
  2.902303641915756E-002
  2.125465433699700E-002
  9.993333333333333E-008
  9.993333333333333E-008
  9.993333333333333E-008
  9.993333333333333E-008
  1.278225274714692E-002
  2.548348264619012E-002
  1.836410075994150E-002
  5.486950874301995E-004
  9.993333333333333E-008
  9.993333333333333E-008
  9.993333333333333E-008
  3.251152915487110E-002
  9.993333333333333E-008
  9.993333333333333E-008
  2.806451113186475E-002
  1.583797781232824E-002
  9.993333333333333E-008
  9.993333333333333E-008
  9.993333333333333E-008
  9.993333333333333E-008
  9.993333333333333E-008
  9.993333333333333E-008
  9.993333333333333E-008
  9.993333333333333E-008
  9.993333333333333E-008
  9.993333333333333E-008
  9.993333333333333E-008
  9.993333333333333E-008
  9.993333333333333E-008
  9.993333333333333E-008
  9.993333333333333E-008
  9.993333333333333E-008
  9.993333333333333E-008
  9.993333333333333E-008
  9.993333333333333E-008
  9.993333333333333E-008
  9.993333333333333E-008
  9.993333333333333E-008
  9.993333333333333E-008
  9.993333333333333E-008
  9.993333333333333E-008
  9.993333333333333E-008
  1.278225274714691E-002
  1.583797781232824E-002
  1.836410075994153E-002
  2.435950325965196E-002
  2.548348264619012E-002