VARIABLES=X,Y,rho,T,kappa,ParticlePercentage
 ZONE N=         305 ,E=         200 ,datapacking=block
varlocation=([3-6]=cellcentered)
ZONETYPE=FETRIANGLE
 -0.500000000000000     
  0.000000000000000E+000
  0.500000000000000     
  0.510000000000000     
  0.510000000000000     
  0.500000000000000     
  0.000000000000000E+000
 -0.500000000000000     
 -0.490000000000000     
 -0.480000000000000     
 -0.470000000000000     
 -0.460000000000000     
 -0.450000000000000     
 -0.440000000000000     
 -0.430000000000000     
 -0.420000000000000     
 -0.410000000000000     
 -0.400000000000000     
 -0.390000000000000     
 -0.380000000000000     
 -0.370000000000000     
 -0.360000000000000     
 -0.350000000000000     
 -0.340000000000000     
 -0.330000000000000     
 -0.320000000000000     
 -0.310000000000000     
 -0.300000000000000     
 -0.290000000000000     
 -0.280000000000000     
 -0.270000000000000     
 -0.260000000000000     
 -0.250000000000000     
 -0.240000000000000     
 -0.230000000000000     
 -0.220000000000000     
 -0.210000000000000     
 -0.200000000000000     
 -0.190000000000000     
 -0.180000000000000     
 -0.170000000000000     
 -0.160000000000000     
 -0.150000000000000     
 -0.140000000000000     
 -0.130000000000000     
 -0.120000000000000     
 -0.110000000000000     
 -0.100000000000000     
 -9.000000000000002E-002
 -8.000000000000002E-002
 -7.000000000000001E-002
 -6.000000000000000E-002
 -4.999999999999999E-002
 -3.999999999999998E-002
 -3.000000000000003E-002
 -2.000000000000002E-002
 -1.000000000000001E-002
  1.000000000000000E-002
  2.000000000000000E-002
  3.000000000000000E-002
  4.000000000000000E-002
  5.000000000000000E-002
  6.000000000000000E-002
  7.000000000000001E-002
  8.000000000000000E-002
  9.000000000000000E-002
  0.100000000000000     
  0.110000000000000     
  0.120000000000000     
  0.130000000000000     
  0.140000000000000     
  0.150000000000000     
  0.160000000000000     
  0.170000000000000     
  0.180000000000000     
  0.190000000000000     
  0.200000000000000     
  0.210000000000000     
  0.220000000000000     
  0.230000000000000     
  0.240000000000000     
  0.250000000000000     
  0.260000000000000     
  0.270000000000000     
  0.280000000000000     
  0.290000000000000     
  0.300000000000000     
  0.310000000000000     
  0.320000000000000     
  0.330000000000000     
  0.340000000000000     
  0.350000000000000     
  0.360000000000000     
  0.370000000000000     
  0.380000000000000     
  0.390000000000000     
  0.400000000000000     
  0.410000000000000     
  0.420000000000000     
  0.430000000000000     
  0.440000000000000     
  0.450000000000000     
  0.460000000000000     
  0.470000000000000     
  0.480000000000000     
  0.490000000000000     
  0.490000000000000     
  0.480000000000000     
  0.470000000000000     
  0.460000000000000     
  0.450000000000000     
  0.440000000000000     
  0.430000000000000     
  0.420000000000000     
  0.410000000000000     
  0.400000000000000     
  0.390000000000000     
  0.380000000000000     
  0.370000000000000     
  0.360000000000000     
  0.350000000000000     
  0.340000000000000     
  0.330000000000000     
  0.320000000000000     
  0.310000000000000     
  0.300000000000000     
  0.290000000000000     
  0.280000000000000     
  0.270000000000000     
  0.260000000000000     
  0.250000000000000     
  0.240000000000000     
  0.230000000000000     
  0.220000000000000     
  0.210000000000000     
  0.200000000000000     
  0.190000000000000     
  0.180000000000000     
  0.170000000000000     
  0.160000000000000     
  0.150000000000000     
  0.140000000000000     
  0.130000000000000     
  0.120000000000000     
  0.110000000000000     
  0.100000000000000     
  9.000000000000002E-002
  8.000000000000002E-002
  7.000000000000001E-002
  6.000000000000000E-002
  4.999999999999999E-002
  3.999999999999998E-002
  3.000000000000003E-002
  2.000000000000002E-002
  1.000000000000001E-002
 -1.000000000000000E-002
 -2.000000000000000E-002
 -3.000000000000000E-002
 -4.000000000000000E-002
 -5.000000000000000E-002
 -6.000000000000000E-002
 -7.000000000000001E-002
 -8.000000000000000E-002
 -9.000000000000000E-002
 -0.100000000000000     
 -0.110000000000000     
 -0.120000000000000     
 -0.130000000000000     
 -0.140000000000000     
 -0.150000000000000     
 -0.160000000000000     
 -0.170000000000000     
 -0.180000000000000     
 -0.190000000000000     
 -0.200000000000000     
 -0.210000000000000     
 -0.220000000000000     
 -0.230000000000000     
 -0.240000000000000     
 -0.250000000000000     
 -0.260000000000000     
 -0.270000000000000     
 -0.280000000000000     
 -0.290000000000000     
 -0.300000000000000     
 -0.310000000000000     
 -0.320000000000000     
 -0.330000000000000     
 -0.340000000000000     
 -0.350000000000000     
 -0.360000000000000     
 -0.370000000000000     
 -0.380000000000000     
 -0.390000000000000     
 -0.400000000000000     
 -0.410000000000000     
 -0.420000000000000     
 -0.430000000000000     
 -0.440000000000000     
 -0.450000000000000     
 -0.460000000000000     
 -0.470000000000000     
 -0.480000000000000     
 -0.490000000000000     
 -0.345000000000000     
 -0.465000000000000     
 -0.145000000000000     
 -0.475000000000000     
 -0.455000000000000     
 -0.285000000000000     
 -0.405000000000000     
 -0.155000000000000     
 -0.215000000000000     
 -9.500000000000000E-002
 -3.500000000000003E-002
 -0.315000000000000     
 -0.305000000000000     
 -0.395000000000000     
 -0.355000000000000     
 -0.425000000000000     
 -0.275000000000000     
 -0.235000000000000     
 -0.205000000000000     
 -0.175000000000000     
 -0.245000000000000     
 -0.185000000000000     
 -4.499999999999996E-002
 -0.195000000000000     
 -0.135000000000000     
 -0.115000000000000     
 -0.105000000000000     
 -8.500000000000016E-002
 -2.500000000000005E-002
 -0.295000000000000     
 -6.500000000000014E-002
 -0.415000000000000     
 -0.485000000000000     
 -0.445000000000000     
 -0.435000000000000     
 -0.385000000000000     
 -0.375000000000000     
 -0.365000000000000     
 -0.265000000000000     
 -0.255000000000000     
 -0.225000000000000     
 -0.165000000000000     
 -0.125000000000000     
 -0.495000000000000     
 -5.000000000000004E-003
 -7.499999999999990E-002
 -5.499999999999985E-002
 -1.499999999999999E-002
 -0.325000000000000     
 -0.335000000000000     
  0.345000000000000     
  0.465000000000000     
  0.145000000000000     
  0.205000000000000     
  0.455000000000000     
  0.475000000000000     
  0.405000000000000     
  0.155000000000000     
  0.215000000000000     
  9.499999999999997E-002
  3.500000000000003E-002
  0.305000000000000     
  0.315000000000000     
  0.275000000000000     
  0.355000000000000     
  0.395000000000000     
  0.175000000000000     
  0.235000000000000     
  0.425000000000000     
  4.499999999999996E-002
  2.500000000000005E-002
  8.500000000000016E-002
  0.105000000000000     
  0.115000000000000     
  0.135000000000000     
  0.185000000000000     
  0.195000000000000     
  0.245000000000000     
  6.500000000000014E-002
  0.285000000000000     
  0.165000000000000     
  0.225000000000000     
  0.295000000000000     
  0.415000000000000     
  0.495000000000000     
  0.125000000000000     
  0.255000000000000     
  0.265000000000000     
  0.365000000000000     
  0.375000000000000     
  0.385000000000000     
  0.435000000000000     
  0.445000000000000     
  0.485000000000000     
  5.000000000000004E-003
  7.499999999999990E-002
  5.499999999999985E-002
  1.500000000000001E-002
  0.325000000000000     
  0.335000000000000     
  0.505000000000000     
  0.000000000000000E+000
  0.000000000000000E+000
  0.000000000000000E+000
  0.000000000000000E+000
  1.000000000000000E-002
  1.000000000000000E-002
  1.000000000000000E-002
  1.000000000000000E-002
  1.000000000000000E-002
  1.000000000000000E-002
  1.000000000000000E-002
  1.000000000000000E-002
  1.000000000000000E-002
  1.000000000000000E-002
  1.000000000000000E-002
  1.000000000000000E-002
  1.000000000000000E-002
  1.000000000000000E-002
  1.000000000000000E-002
  1.000000000000000E-002
  1.000000000000000E-002
  1.000000000000000E-002
  1.000000000000000E-002
  1.000000000000000E-002
  1.000000000000000E-002
  1.000000000000000E-002
  1.000000000000000E-002
  1.000000000000000E-002
  1.000000000000000E-002
  1.000000000000000E-002
  1.000000000000000E-002
  1.000000000000000E-002
  1.000000000000000E-002
  1.000000000000000E-002
  1.000000000000000E-002
  1.000000000000000E-002
  1.000000000000000E-002
  1.000000000000000E-002
  1.000000000000000E-002
  1.000000000000000E-002
  1.000000000000000E-002
  1.000000000000000E-002
  1.000000000000000E-002
  1.000000000000000E-002
  1.000000000000000E-002
  1.000000000000000E-002
  1.000000000000000E-002
  1.000000000000000E-002
  1.000000000000000E-002
  1.000000000000000E-002
  1.000000000000000E-002
  1.000000000000000E-002
  1.000000000000000E-002
  1.000000000000000E-002
  1.000000000000000E-002
  1.000000000000000E-002
  1.000000000000000E-002
  1.000000000000000E-002
  1.000000000000000E-002
  1.000000000000000E-002
  1.000000000000000E-002
  1.000000000000000E-002
  1.000000000000000E-002
  1.000000000000000E-002
  1.000000000000000E-002
  1.000000000000000E-002
  1.000000000000000E-002
  1.000000000000000E-002
  1.000000000000000E-002
  1.000000000000000E-002
  1.000000000000000E-002
  1.000000000000000E-002
  1.000000000000000E-002
  1.000000000000000E-002
  1.000000000000000E-002
  1.000000000000000E-002
  1.000000000000000E-002
  1.000000000000000E-002
  1.000000000000000E-002
  1.000000000000000E-002
  1.000000000000000E-002
  1.000000000000000E-002
  1.000000000000000E-002
  1.000000000000000E-002
  1.000000000000000E-002
  1.000000000000000E-002
  1.000000000000000E-002
  1.000000000000000E-002
  1.000000000000000E-002
  1.000000000000000E-002
  1.000000000000000E-002
  1.000000000000000E-002
  1.000000000000000E-002
  1.000000000000000E-002
  1.000000000000000E-002
  1.000000000000000E-002
  1.000000000000000E-002
  1.000000000000000E-002
  1.000000000000000E-002
  1.000000000000000E-002
  1.000000000000000E-002
  1.000000000000000E-002
  1.000000000000000E-002
  1.000000000000000E-002
  1.000000000000000E-002
  1.000000000000000E-002
  0.000000000000000E+000
  0.000000000000000E+000
  0.000000000000000E+000
  0.000000000000000E+000
  0.000000000000000E+000
  0.000000000000000E+000
  0.000000000000000E+000
  0.000000000000000E+000
  0.000000000000000E+000
  0.000000000000000E+000
  0.000000000000000E+000
  0.000000000000000E+000
  0.000000000000000E+000
  0.000000000000000E+000
  0.000000000000000E+000
  0.000000000000000E+000
  0.000000000000000E+000
  0.000000000000000E+000
  0.000000000000000E+000
  0.000000000000000E+000
  0.000000000000000E+000
  0.000000000000000E+000
  0.000000000000000E+000
  0.000000000000000E+000
  0.000000000000000E+000
  0.000000000000000E+000
  0.000000000000000E+000
  0.000000000000000E+000
  0.000000000000000E+000
  0.000000000000000E+000
  0.000000000000000E+000
  0.000000000000000E+000
  0.000000000000000E+000
  0.000000000000000E+000
  0.000000000000000E+000
  0.000000000000000E+000
  0.000000000000000E+000
  0.000000000000000E+000
  0.000000000000000E+000
  0.000000000000000E+000
  0.000000000000000E+000
  0.000000000000000E+000
  0.000000000000000E+000
  0.000000000000000E+000
  0.000000000000000E+000
  0.000000000000000E+000
  0.000000000000000E+000
  0.000000000000000E+000
  0.000000000000000E+000
  0.000000000000000E+000
  0.000000000000000E+000
  0.000000000000000E+000
  0.000000000000000E+000
  0.000000000000000E+000
  0.000000000000000E+000
  0.000000000000000E+000
  0.000000000000000E+000
  0.000000000000000E+000
  0.000000000000000E+000
  0.000000000000000E+000
  0.000000000000000E+000
  0.000000000000000E+000
  0.000000000000000E+000
  0.000000000000000E+000
  0.000000000000000E+000
  0.000000000000000E+000
  0.000000000000000E+000
  0.000000000000000E+000
  0.000000000000000E+000
  0.000000000000000E+000
  0.000000000000000E+000
  0.000000000000000E+000
  0.000000000000000E+000
  0.000000000000000E+000
  0.000000000000000E+000
  0.000000000000000E+000
  0.000000000000000E+000
  0.000000000000000E+000
  0.000000000000000E+000
  0.000000000000000E+000
  0.000000000000000E+000
  0.000000000000000E+000
  0.000000000000000E+000
  0.000000000000000E+000
  0.000000000000000E+000
  0.000000000000000E+000
  0.000000000000000E+000
  0.000000000000000E+000
  0.000000000000000E+000
  0.000000000000000E+000
  0.000000000000000E+000
  0.000000000000000E+000
  0.000000000000000E+000
  0.000000000000000E+000
  0.000000000000000E+000
  0.000000000000000E+000
  0.000000000000000E+000
  0.000000000000000E+000
  5.000000000000000E-003
  4.999999999999991E-003
  5.000000000000016E-003
  4.999999999999998E-003
  4.999999999999875E-003
  5.000000000000011E-003
  5.000000000000102E-003
  5.000000000000004E-003
  4.999999999999999E-003
  5.000000000000034E-003
  4.999999999999989E-003
  5.000000000000000E-003
  4.999999999999999E-003
  5.000000000000056E-003
  4.999999999999966E-003
  5.000000000000000E-003
  4.999999999999983E-003
  5.000000000000000E-003
  5.000000000000000E-003
  5.000000000000000E-003
  5.000000000000000E-003
  5.000000000000000E-003
  4.999999999999998E-003
  5.000000000000000E-003
  5.000000000000000E-003
  5.000000000000000E-003
  5.000000000000006E-003
  5.000000000000111E-003
  4.999999999999931E-003
  4.999999999999997E-003
  5.000000000000000E-003
  5.000000000000068E-003
  5.000000000000000E-003
  5.000000000000000E-003
  5.000000000000000E-003
  5.000000000000003E-003
  5.000000000000000E-003
  5.000000000000000E-003
  5.000000000000000E-003
  5.000000000000000E-003
  5.000000000000017E-003
  5.000000000000024E-003
  5.000000000000000E-003
  5.000000000000000E-003
  5.000000000000000E-003
  5.000000000000000E-003
  5.000000000000000E-003
  5.000000000000000E-003
  4.999999999999991E-003
  5.000000000000019E-003
  5.000000000000001E-003
  5.000000000000010E-003
  4.999999999999984E-003
  4.999999999999984E-003
  5.000000000000125E-003
  4.999999999999978E-003
  4.999999999999899E-003
  4.999999999999998E-003
  5.000000000000000E-003
  4.999999999999933E-003
  4.999999999999989E-003
  5.000000000000001E-003
  5.000000000000000E-003
  5.000000000000012E-003
  5.000000000000035E-003
  4.999999999999945E-003
  5.000000000000000E-003
  5.000000000000000E-003
  5.000000000000001E-003
  4.999999999999998E-003
  5.000000000000069E-003
  4.999999999999889E-003
  5.000000000000028E-003
  5.000000000000001E-003
  5.000000000000000E-003
  5.000000000000000E-003
  5.000000000000000E-003
  4.999999999999999E-003
  5.000000000000000E-003
  4.999999999999993E-003
  4.999999999999984E-003
  4.999999999999980E-003
  4.999999999999999E-003
  4.999999999999933E-003
  5.000000000000000E-003
  5.000000000000000E-003
  5.000000000000000E-003
  5.000000000000000E-003
  5.000000000000000E-003
  5.000000000000000E-003
  4.999999999999998E-003
  5.000000000000000E-003
  5.000000000000000E-003
  4.999999999999967E-003
  5.000000000000000E-003
  5.000000000000001E-003
  5.000000000000000E-003
  5.000000000000000E-003
  5.000000000000009E-003
  5.000000000000024E-003
  5.000000000000000E-003
  4.113256000000002E-025
  4.113256000000001E-025
  0.211875573674869     
  0.336590227545380     
  0.212025911411821     
  0.336395340671831     
  4.113256000000001E-025
  4.113256000000001E-025
  7.341161881473164E-002
  4.113256000000001E-025
  4.113256000000001E-025
  4.113256000000001E-025
  7.340545528339906E-002
  4.113256000000001E-025
  4.113256000000001E-025
  4.113256000000001E-025
  4.113256000000001E-025
  4.113256000000001E-025
  4.113256000000001E-025
  4.113256000000001E-025
  4.113256000000001E-025
  4.113256000000001E-025
  4.113256000000001E-025
  4.113256000000001E-025
  3.504955382550186E-020
  4.113256000000001E-025
  4.113256000000001E-025
  4.113256000000001E-025
  4.113256000000001E-025
  4.113256000000001E-025
  4.113256000000001E-025
  4.113256000000001E-025
  4.113256000000001E-025
  4.113256000000001E-025
  4.113256000000001E-025
  4.113256000000001E-025
  0.285858099688232     
  0.292405720476607     
  0.254617024424576     
  0.173739218636579     
  5.269028044984003E-009
  4.113256000000001E-025
  4.113256000000001E-025
  4.113256000000001E-025
  4.113256000000001E-025
  4.113256000000001E-025
  4.113256000000001E-025
  4.113256000000001E-025
  4.113256000000001E-025
  4.113256000000001E-025
  4.113256000000001E-025
  0.375114193993354     
  0.368544565438993     
  0.349706328274797     
  0.355840287950458     
  0.246688390823651     
  0.163633964590727     
  0.130320612124485     
  0.142072732046658     
  4.113256000000001E-025
  4.113256000000001E-025
  4.113256000000001E-025
  4.113256000000001E-025
  4.113256000000001E-025
  4.113256000000001E-025
  4.113256000000001E-025
  4.113256000000001E-025
  4.113256000000001E-025
  0.387259930531897     
  4.113256000000001E-025
  4.113256000000001E-025
  4.113256000000002E-025
  0.104227915181124     
  0.104197577950806     
  4.113256000000001E-025
  0.307198165525092     
  4.113256000000001E-025
  0.307529871394351     
  4.113256000000001E-025
  4.113256000000001E-025
  3.390364719607828E-002
  4.113256000000001E-025
  0.193254273320396     
  0.193139961009891     
  3.390454211420058E-002
  4.113256000000001E-025
  4.113256000000001E-025
  4.113256000000001E-025
  4.113256000000001E-025
  4.113256000000001E-025
  4.113256000000001E-025
  4.113256000000001E-025
  4.113256000000001E-025
  0.230002635202871     
  0.322131217859348     
  0.230116501915559     
  0.322213066496359     
  0.270646263210924     
  0.270382361086593     
  4.113256000000001E-025
  4.113256000000001E-025
  4.113256000000001E-025
  4.113256000000000E-025
  4.113256000000000E-025
  4.113256000000001E-025
  4.113256000000002E-025
  4.113256000000000E-025
  4.113256000000000E-025
  4.113256000000002E-025
  4.113256000000001E-025
  4.113256000000002E-025
  4.113256000000001E-025
  4.113256000000000E-025
  4.113256000000000E-025
  4.113256000000000E-025
  4.113256000000000E-025
  8.953380687743269E-002
  5.521921921637921E-002
  4.113256000000002E-025
  0.202588568688678     
  4.113256668582134E-025
  4.113256000000000E-025
  4.113256000000000E-025
  4.113256000000001E-025
  4.113256000000000E-025
  4.113256000000000E-025
  4.113256000000000E-025
  4.113256000000001E-025
  4.113256000000001E-025
  4.113256000000000E-025
  7.021799418271490E-003
  0.238712781121309     
  0.314852532328867     
  0.343328197327826     
  0.329061614410057     
  0.220957155730891     
  4.113256000000000E-025
  4.113256000000000E-025
  4.113256000000001E-025
  4.113256000000000E-025
  0.117789711260289     
  0.278743701292182     
  0.183391547497783     
  7.022131101632392E-003
  4.113256000000000E-025
  4.113256000000000E-025
  4.113256000000000E-025
  0.381253444600623     
  4.113256000000001E-025
  4.113256000000001E-025
  0.314977760941208     
  0.153007777521423     
  4.113256000000001E-025
  4.113256000000001E-025
  4.113256000000001E-025
  4.113256000000001E-025
  4.113256000000000E-025
  4.113256000000002E-025
  4.113256000000000E-025
  4.113256000000000E-025
  4.113256000000001E-025
  4.113256000000000E-025
  4.113256000000000E-025
  4.113256000000001E-025
  4.113256000000000E-025
  4.113256000000000E-025
  4.113256000000002E-025
  4.113256000000000E-025
  4.113256000000001E-025
  4.113256000000000E-025
  4.113256000000000E-025
  4.113256000000001E-025
  4.113256000000001E-025
  4.113256000000000E-025
  4.113256000000000E-025
  4.113256000000000E-025
  4.113256000000000E-025
  4.113261431645497E-025
  0.117820620211483     
  0.152922496725163     
  0.183300665940522     
  0.262380313694536     
  0.278431040733562     
  0.300030941957050     
  0.361840472014858     
  0.381203794512415     
  0.362375652135482     
  0.299383121174208     
  0.343621271231046     
  4.113256000000002E-025
  5.522229868310953E-002
  0.221011258645497     
  0.328915106597780     
  0.262392892704989     
  0.238626859159776     
  0.202803230316948     
  8.955263629861060E-002
  4.113256000000000E-025
  4.113256000000000E-025
  4.113256000000002E-025
  1.000000000000000E-006
  1.000000000000000E-006
  0.847189300338278     
  0.950993820954896     
  0.847274450374475     
  0.950927372009459     
  1.000000000000000E-006
  1.000000000000000E-006
  0.649936714062573     
  1.000000000000000E-006
  1.000000000000000E-006
  1.000000000000000E-006
  0.649931628890197     
  1.000000000000000E-006
  1.000000000000000E-006
  1.000000000000000E-006
  1.000000000000000E-006
  1.000000000000000E-006
  1.000000000000000E-006
  1.000000000000000E-006
  1.000000000000000E-006
  1.000000000000000E-006
  1.000000000000000E-006
  1.000000000000000E-006
  1.357623716029194E-005
  1.000000000000000E-006
  1.000000000000000E-006
  1.000000000000000E-006
  1.000000000000000E-006
  1.000000000000000E-006
  1.000000000000000E-006
  1.000000000000000E-006
  1.000000000000000E-006
  1.000000000000000E-006
  1.000000000000000E-006
  1.000000000000000E-006
  0.912878453194082     
  0.918521633984673     
  0.887031580370106     
  0.806164429496965     
  1.040905339957812E-002
  1.000000000000000E-006
  1.000000000000000E-006
  1.000000000000000E-006
  1.000000000000000E-006
  1.000000000000000E-006
  1.000000000000000E-006
  1.000000000000000E-006
  1.000000000000000E-006
  1.000000000000000E-006
  1.000000000000000E-006
  0.977054799718302     
  0.973053463067269     
  0.960371862723009     
  0.964639712021000     
  0.880109237288525     
  0.794115820108376     
  0.750216494593267     
  0.766600018618444     
  1.000000000000000E-006
  1.000000000000000E-006
  1.000000000000000E-006
  1.000000000000000E-006
  1.000000000000000E-006
  1.000000000000000E-006
  1.000000000000000E-006
  1.000000000000000E-006
  1.000000000000000E-006
  0.985071866247346     
  1.000000000000000E-006
  1.000000000000000E-006
  1.000000000000000E-006
  0.709461646229278     
  0.709442154254228     
  1.000000000000000E-006
  0.929621073250420     
  1.000000000000000E-006
  0.929787968700762     
  1.000000000000000E-006
  1.000000000000000E-006
  0.535737170028081     
  1.000000000000000E-006
  0.827858378099997     
  0.827763769998467     
  0.535741043139792     
  1.000000000000000E-006
  1.000000000000000E-006
  1.000000000000000E-006
  1.000000000000000E-006
  1.000000000000000E-006
  1.000000000000000E-006
  1.000000000000000E-006
  1.000000000000000E-006
  0.864713147639808     
  0.940684168152578     
  0.864797986058011     
  0.940762800511423     
  0.900453308515169     
  0.900431267836486     
  1.000000000000000E-006
  1.000000000000000E-006
  1.000000000000000E-006
  1.000000000000000E-006
  1.000000000000000E-006
  1.000000000000000E-006
  1.000000000000000E-006
  1.000000000000000E-006
  1.000000000000000E-006
  1.000000000000000E-006
  1.000000000000000E-006
  1.000000000000000E-006
  1.000000000000000E-006
  1.000000000000000E-006
  1.000000000000000E-006
  1.000000000000000E-006
  1.000000000000000E-006
  0.683033614708789     
  0.605266141996180     
  1.000000000000000E-006
  0.837794825926240     
  1.000000007507559E-006
  1.000000000000000E-006
  1.000000000000000E-006
  1.000000000000000E-006
  1.000000000000000E-006
  1.000000000000000E-006
  1.000000000000000E-006
  1.000000000000000E-006
  1.000000000000000E-006
  1.000000000000000E-006
  0.360957029048549     
  0.872775368506289     
  0.935398537038079     
  0.955904102368557     
  0.945758022556359     
  0.856173884012627     
  1.000000000000000E-006
  1.000000000000000E-006
  1.000000000000000E-006
  1.000000000000000E-006
  0.731529786504181     
  0.907227718264150     
  0.817147855633170     
  0.360961338433880     
  1.000000000000000E-006
  1.000000000000000E-006
  1.000000000000000E-006
  0.981004712421137     
  1.000000000000000E-006
  1.000000000000000E-006
  0.935356102392245     
  0.780966391061883     
  1.000000000000000E-006
  1.000000000000000E-006
  1.000000000000000E-006
  1.000000000000000E-006
  1.000000000000000E-006
  1.000000000000000E-006
  1.000000000000000E-006
  1.000000000000000E-006
  1.000000000000000E-006
  1.000000000000000E-006
  1.000000000000000E-006
  1.000000000000000E-006
  1.000000000000000E-006
  1.000000000000000E-006
  1.000000000000000E-006
  1.000000000000000E-006
  1.000000000000000E-006
  1.000000000000000E-006
  1.000000000000000E-006
  1.000000000000000E-006
  1.000000000000000E-006
  1.000000000000000E-006
  1.000000000000000E-006
  1.000000000000000E-006
  1.000000000000000E-006
  1.000000213293579E-006
  0.731553793051353     
  0.780879791086983     
  0.817134528110239     
  0.893667520286792     
  0.907175367270692     
  0.924042229311038     
  0.968723742527445     
  0.981013179668771     
  0.968873753411274     
  0.923860994946419     
  0.955914889966936     
  1.000000000000000E-006
  0.605273655536893     
  0.856193651423421     
  0.945614537419869     
  0.893586263633434     
  0.872682382830925     
  0.837856301507384     
  0.683049375361458     
  1.000000000000000E-006
  1.000000000000000E-006
  1.000000000000000E-006
  9.993333333333333E-008
  9.993333333333333E-008
  2.025491875792773E-002
  2.864984023490134E-002
  2.026102676842836E-002
  2.864383508993157E-002
  9.993333333333333E-008
  9.993333333333333E-008
  9.145392100714179E-003
  9.993333333333333E-008
  9.993333333333333E-008
  9.993333333333333E-008
  9.145177438933467E-003
  9.993333333333333E-008
  9.993333333333333E-008
  9.993333333333333E-008
  9.993333333333333E-008
  9.993333333333333E-008
  9.993333333333333E-008
  9.993333333333333E-008
  9.993333333333333E-008
  9.993333333333333E-008
  9.993333333333333E-008
  9.993333333333333E-008
  9.993333333333333E-008
  9.993333333333333E-008
  9.993333333333333E-008
  9.993333333333333E-008
  9.993333333333333E-008
  9.993333333333333E-008
  9.993333333333333E-008
  9.993333333333333E-008
  9.993333333333333E-008
  9.993333333333333E-008
  9.993333333333333E-008
  9.993333333333333E-008
  2.534124738060325E-002
  2.581411783946063E-002
  2.324911175334504E-002
  1.745259515225988E-002
  9.993333333333333E-008
  9.993333333333333E-008
  9.993333333333333E-008
  9.993333333333333E-008
  9.993333333333333E-008
  9.993333333333333E-008
  9.993333333333333E-008
  9.993333333333333E-008
  9.993333333333333E-008
  9.993333333333333E-008
  9.993333333333333E-008
  3.107033147983010E-002
  3.069016525637383E-002
  2.950580048891085E-002
  2.990091853037173E-002
  2.270904425653640E-002
  1.668171368684902E-002
  1.406529821564230E-002
  1.500705918992649E-002
  9.993333333333333E-008
  9.993333333333333E-008
  9.993333333333333E-008
  9.993333333333333E-008
  9.993333333333333E-008
  9.993333333333333E-008
  9.993333333333333E-008
  9.993333333333333E-008
  9.993333333333333E-008
  3.184145218909638E-002
  9.993333333333333E-008
  9.993333333333333E-008
  9.993333333333333E-008
  1.189531332610035E-002
  1.189433290629827E-002
  9.993333333333333E-008
  2.676128721722136E-002
  9.993333333333333E-008
  2.677570321648460E-002
  9.993333333333333E-008
  9.993333333333333E-008
  5.122057585697330E-003
  9.993333333333333E-008
  1.889980241603079E-002
  1.889332351747961E-002
  5.122168676230122E-003
  9.993333333333333E-008
  9.993333333333333E-008
  9.993333333333333E-008
  9.993333333333333E-008
  9.993333333333333E-008
  9.993333333333333E-008
  9.993333333333333E-008
  9.993333333333333E-008
  2.153799669625905E-002
  2.772813268837428E-002
  2.154433670227561E-002
  2.773508670379184E-002
  2.432051199574872E-002
  2.431872613680705E-002
  9.993333333333333E-008
  9.993333333333333E-008
  9.993333333333333E-008
  9.993333333333333E-008
  9.993333333333333E-008
  9.993333333333333E-008
  9.993333333333333E-008
  9.993333333333333E-008
  9.993333333333333E-008
  9.993333333333333E-008
  9.993333333333333E-008
  9.993333333333333E-008
  9.993333333333333E-008
  9.993333333333333E-008
  9.993333333333333E-008
  9.993333333333333E-008
  9.993333333333333E-008
  1.061488642114820E-002
  7.386322415035490E-003
  9.993333333333333E-008
  1.958854329388775E-002
  9.993333333333333E-008
  9.993333333333333E-008
  9.993333333333333E-008
  9.993333333333333E-008
  9.993333333333333E-008
  9.993333333333333E-008
  9.993333333333333E-008
  9.993333333333333E-008
  9.993333333333333E-008
  9.993333333333333E-008
  1.566591006485499E-003
  2.214606459456935E-002
  2.726334743373353E-002
  2.909592009582418E-002
  2.817923643331858E-002
  2.090619746659513E-002
  9.993333333333333E-008
  9.993333333333333E-008
  9.993333333333333E-008
  9.993333333333333E-008
  1.304022732920099E-002
  2.487356591816135E-002
  1.817569620611210E-002
  1.566647116696691E-003
  9.993333333333333E-008
  9.993333333333333E-008
  9.993333333333333E-008
  3.144867843502118E-002
  9.993333333333333E-008
  9.993333333333333E-008
  2.725963717124785E-002
  1.586668326225093E-002
  9.993333333333333E-008
  9.993333333333333E-008
  9.993333333333333E-008
  9.993333333333333E-008
  9.993333333333333E-008
  9.993333333333333E-008
  9.993333333333333E-008
  9.993333333333333E-008
  9.993333333333333E-008
  9.993333333333333E-008
  9.993333333333333E-008
  9.993333333333333E-008
  9.993333333333333E-008
  9.993333333333333E-008
  9.993333333333333E-008
  9.993333333333333E-008
  9.993333333333333E-008
  9.993333333333333E-008
  9.993333333333333E-008
  9.993333333333333E-008
  9.993333333333333E-008
  9.993333333333333E-008
  9.993333333333333E-008
  9.993333333333333E-008
  9.993333333333333E-008
  9.993333333333333E-008
  1.304151119118904E-002
  1.586140556266182E-002
  1.817480689463433E-002
  2.377480925929393E-002
  2.486926022742216E-002